# OOMMF: rectangular mesh v1.0
# Segment count: 1
# Begin: Segment
# Begin: Header
# Title: /home/loris/dynamical_matrix/test/test-Oxs_TimeDriver-Magnetization-01-0006257.omf
# Desc: Oxs vector field output
# Desc: MIF source file: /home/loris/dynamical_matrix/test/test.mif
# Desc: Iteration: 6257, State id: 14936
# Desc: Stage: 1, Stage iteration: 0
# Desc: Stage simulation time: 0 s
# Desc: Total simulation time: 2.10692e-09 s
# meshtype: rectangular
# meshunit: m
# xbase: 2.5000000000000001e-09
# ybase: 2.5000000000000001e-09
# zbase: 1e-08
# xstepsize: 5.0000000000000001e-09
# ystepsize: 5.0000000000000001e-09
# zstepsize: 2e-08
# xnodes: 120
# ynodes: 120
# znodes: 1
# xmin: 0
# ymin: 0
# zmin: 0
# xmax: 5.9999999999999997e-07
# ymax: 5.9999999999999997e-07
# zmax: 2e-08
# valueunit: A/m
# valuemultiplier: 1
# ValueRangeMinMag: 859999.99999999977
# ValueRangeMaxMag: 860000.00000000035
# End: Header
# Begin: Data Text
 0.0000000000000000  0.0000000000000000  0.0000000000000000
 0.0000000000000000  0.0000000000000000  0.0000000000000000
 0.0000000000000000  0.0000000000000000  0.0000000000000000
 0.0000000000000000  0.0000000000000000  0.0000000000000000
 0.0000000000000000  0.0000000000000000  0.0000000000000000
 0.0000000000000000  0.0000000000000000  0.0000000000000000
 0.0000000000000000  0.0000000000000000  0.0000000000000000
 0.0000000000000000  0.0000000000000000  0.0000000000000000
 0.0000000000000000  0.0000000000000000  0.0000000000000000
 0.0000000000000000  0.0000000000000000  0.0000000000000000
 0.0000000000000000  0.0000000000000000  0.0000000000000000
 0.0000000000000000  0.0000000000000000  0.0000000000000000
 0.0000000000000000  0.0000000000000000  0.0000000000000000
 0.0000000000000000  0.0000000000000000  0.0000000000000000
 0.0000000000000000  0.0000000000000000  0.0000000000000000
 0.0000000000000000  0.0000000000000000  0.0000000000000000
 0.0000000000000000  0.0000000000000000  0.0000000000000000
 0.0000000000000000  0.0000000000000000  0.0000000000000000
 0.0000000000000000  0.0000000000000000  0.0000000000000000
 0.0000000000000000  0.0000000000000000  0.0000000000000000
 0.0000000000000000  0.0000000000000000  0.0000000000000000
 0.0000000000000000  0.0000000000000000  0.0000000000000000
 0.0000000000000000  0.0000000000000000  0.0000000000000000
 0.0000000000000000  0.0000000000000000  0.0000000000000000
 0.0000000000000000  0.0000000000000000  0.0000000000000000
 0.0000000000000000  0.0000000000000000  0.0000000000000000
 0.0000000000000000  0.0000000000000000  0.0000000000000000
 0.0000000000000000  0.0000000000000000  0.0000000000000000
 0.0000000000000000  0.0000000000000000  0.0000000000000000
 0.0000000000000000  0.0000000000000000  0.0000000000000000
 0.0000000000000000  0.0000000000000000  0.0000000000000000
 0.0000000000000000  0.0000000000000000  0.0000000000000000
 0.0000000000000000  0.0000000000000000  0.0000000000000000
 0.0000000000000000  0.0000000000000000  0.0000000000000000
 0.0000000000000000  0.0000000000000000  0.0000000000000000
 0.0000000000000000  0.0000000000000000  0.0000000000000000
 0.0000000000000000  0.0000000000000000  0.0000000000000000
 0.0000000000000000  0.0000000000000000  0.0000000000000000
 0.0000000000000000  0.0000000000000000  0.0000000000000000
 0.0000000000000000  0.0000000000000000  0.0000000000000000
 0.0000000000000000  0.0000000000000000  0.0000000000000000
 0.0000000000000000  0.0000000000000000  0.0000000000000000
 0.0000000000000000  0.0000000000000000  0.0000000000000000
 0.0000000000000000  0.0000000000000000  0.0000000000000000
 0.0000000000000000  0.0000000000000000  0.0000000000000000
 0.0000000000000000  0.0000000000000000  0.0000000000000000
 0.0000000000000000  0.0000000000000000  0.0000000000000000
 0.0000000000000000  0.0000000000000000  0.0000000000000000
 0.0000000000000000  0.0000000000000000  0.0000000000000000
 0.0000000000000000  0.0000000000000000  0.0000000000000000
 0.0000000000000000  0.0000000000000000  0.0000000000000000
 0.0000000000000000  0.0000000000000000  0.0000000000000000
 856560.11910098093 -76842.451585780218  6.6766683678622146e-10
 858145.36533606483 -56449.375127025545  6.2171981209374176e-10
 859145.86846977880 -38319.403587597539  5.6805151223400879e-10
 859630.32553506712 -25213.159668601773  5.3852912950105949e-10
 859847.42907119938 -16198.725864971166  5.1877225547764580e-10
 859942.53820951632 -9941.3770562299524  5.0623481736933434e-10
 859983.24650441902 -5368.0286623260608  4.9710164353409808e-10
 859998.34863402764 -1685.3328292106105  4.9616941038012518e-10
 859998.26128844230  1729.3295972119417  4.9686019943965197e-10
 859982.76037489728  5445.3519603288041  5.0100084712897251e-10
 859940.77447564388  10092.789219510514  4.9855107003026097e-10
 859842.05821022205  16481.351061397127  5.0466967905010559e-10
 859615.54896763444  25712.020011509740  5.0832532340290645e-10
 859107.95498706645  39160.205284708616  5.1952995958178306e-10
 858055.55975048232  57798.411580994762  5.4901666261912063e-10
 856380.85076295398  78815.217099993024  5.9068796621302965e-10
 0.0000000000000000  0.0000000000000000  0.0000000000000000
 0.0000000000000000  0.0000000000000000  0.0000000000000000
 0.0000000000000000  0.0000000000000000  0.0000000000000000
 0.0000000000000000  0.0000000000000000  0.0000000000000000
 0.0000000000000000  0.0000000000000000  0.0000000000000000
 0.0000000000000000  0.0000000000000000  0.0000000000000000
 0.0000000000000000  0.0000000000000000  0.0000000000000000
 0.0000000000000000  0.0000000000000000  0.0000000000000000
 0.0000000000000000  0.0000000000000000  0.0000000000000000
 0.0000000000000000  0.0000000000000000  0.0000000000000000
 0.0000000000000000  0.0000000000000000  0.0000000000000000
 0.0000000000000000  0.0000000000000000  0.0000000000000000
 0.0000000000000000  0.0000000000000000  0.0000000000000000
 0.0000000000000000  0.0000000000000000  0.0000000000000000
 0.0000000000000000  0.0000000000000000  0.0000000000000000
 0.0000000000000000  0.0000000000000000  0.0000000000000000
 0.0000000000000000  0.0000000000000000  0.0000000000000000
 0.0000000000000000  0.0000000000000000  0.0000000000000000
 0.0000000000000000  0.0000000000000000  0.0000000000000000
 0.0000000000000000  0.0000000000000000  0.0000000000000000
 0.0000000000000000  0.0000000000000000  0.0000000000000000
 0.0000000000000000  0.0000000000000000  0.0000000000000000
 0.0000000000000000  0.0000000000000000  0.0000000000000000
 0.0000000000000000  0.0000000000000000  0.0000000000000000
 0.0000000000000000  0.0000000000000000  0.0000000000000000
 0.0000000000000000  0.0000000000000000  0.0000000000000000
 0.0000000000000000  0.0000000000000000  0.0000000000000000
 0.0000000000000000  0.0000000000000000  0.0000000000000000
 0.0000000000000000  0.0000000000000000  0.0000000000000000
 0.0000000000000000  0.0000000000000000  0.0000000000000000
 0.0000000000000000  0.0000000000000000  0.0000000000000000
 0.0000000000000000  0.0000000000000000  0.0000000000000000
 0.0000000000000000  0.0000000000000000  0.0000000000000000
 0.0000000000000000  0.0000000000000000  0.0000000000000000
 0.0000000000000000  0.0000000000000000  0.0000000000000000
 0.0000000000000000  0.0000000000000000  0.0000000000000000
 0.0000000000000000  0.0000000000000000  0.0000000000000000
 0.0000000000000000  0.0000000000000000  0.0000000000000000
 0.0000000000000000  0.0000000000000000  0.0000000000000000
 0.0000000000000000  0.0000000000000000  0.0000000000000000
 0.0000000000000000  0.0000000000000000  0.0000000000000000
 0.0000000000000000  0.0000000000000000  0.0000000000000000
 0.0000000000000000  0.0000000000000000  0.0000000000000000
 0.0000000000000000  0.0000000000000000  0.0000000000000000
 0.0000000000000000  0.0000000000000000  0.0000000000000000
 0.0000000000000000  0.0000000000000000  0.0000000000000000
 0.0000000000000000  0.0000000000000000  0.0000000000000000
 0.0000000000000000  0.0000000000000000  0.0000000000000000
 0.0000000000000000  0.0000000000000000  0.0000000000000000
 0.0000000000000000  0.0000000000000000  0.0000000000000000
 0.0000000000000000  0.0000000000000000  0.0000000000000000
 0.0000000000000000  0.0000000000000000  0.0000000000000000
 0.0000000000000000  0.0000000000000000  0.0000000000000000
 0.0000000000000000  0.0000000000000000  0.0000000000000000
 0.0000000000000000  0.0000000000000000  0.0000000000000000
 0.0000000000000000  0.0000000000000000  0.0000000000000000
 0.0000000000000000  0.0000000000000000  0.0000000000000000
 0.0000000000000000  0.0000000000000000  0.0000000000000000
 0.0000000000000000  0.0000000000000000  0.0000000000000000
 0.0000000000000000  0.0000000000000000  0.0000000000000000
 0.0000000000000000  0.0000000000000000  0.0000000000000000
 0.0000000000000000  0.0000000000000000  0.0000000000000000
 0.0000000000000000  0.0000000000000000  0.0000000000000000
 0.0000000000000000  0.0000000000000000  0.0000000000000000
 0.0000000000000000  0.0000000000000000  0.0000000000000000
 0.0000000000000000  0.0000000000000000  0.0000000000000000
 0.0000000000000000  0.0000000000000000  0.0000000000000000
 0.0000000000000000  0.0000000000000000  0.0000000000000000
 0.0000000000000000  0.0000000000000000  0.0000000000000000
 0.0000000000000000  0.0000000000000000  0.0000000000000000
 0.0000000000000000  0.0000000000000000  0.0000000000000000
 0.0000000000000000  0.0000000000000000  0.0000000000000000
 0.0000000000000000  0.0000000000000000  0.0000000000000000
 0.0000000000000000  0.0000000000000000  0.0000000000000000
 0.0000000000000000  0.0000000000000000  0.0000000000000000
 0.0000000000000000  0.0000000000000000  0.0000000000000000
 0.0000000000000000  0.0000000000000000  0.0000000000000000
 0.0000000000000000  0.0000000000000000  0.0000000000000000
 0.0000000000000000  0.0000000000000000  0.0000000000000000
 0.0000000000000000  0.0000000000000000  0.0000000000000000
 0.0000000000000000  0.0000000000000000  0.0000000000000000
 0.0000000000000000  0.0000000000000000  0.0000000000000000
 0.0000000000000000  0.0000000000000000  0.0000000000000000
 0.0000000000000000  0.0000000000000000  0.0000000000000000
 0.0000000000000000  0.0000000000000000  0.0000000000000000
 0.0000000000000000  0.0000000000000000  0.0000000000000000
 0.0000000000000000  0.0000000000000000  0.0000000000000000
 0.0000000000000000  0.0000000000000000  0.0000000000000000
 0.0000000000000000  0.0000000000000000  0.0000000000000000
 0.0000000000000000  0.0000000000000000  0.0000000000000000
 0.0000000000000000  0.0000000000000000  0.0000000000000000
 0.0000000000000000  0.0000000000000000  0.0000000000000000
 0.0000000000000000  0.0000000000000000  0.0000000000000000
 0.0000000000000000  0.0000000000000000  0.0000000000000000
 0.0000000000000000  0.0000000000000000  0.0000000000000000
 0.0000000000000000  0.0000000000000000  0.0000000000000000
 0.0000000000000000  0.0000000000000000  0.0000000000000000
 0.0000000000000000  0.0000000000000000  0.0000000000000000
 851836.81687126204 -118211.83283680171  7.4555035814301357e-10
 854737.70106642041 -94991.906895747758  6.7416361211669380e-10
 856367.25717534334 -78962.781346525255  6.1166261498037628e-10
 856767.80410203687 -74491.139433986653  5.7274303642596818e-10
 856025.47866633546 -82585.591201317060  5.4763409893116805e-10
 853984.49946235679 -101540.50757223768  5.4406272574272591e-10
 854473.82824801130 -97336.924335977819  5.7650574324294759e-10
 857247.14111482562 -68755.647407743469  5.6665646204265276e-10
 858787.52628444473 -45650.681246218366  5.3595243749212612e-10
 859485.88543342485 -29732.351752280942  5.0861555100864819e-10
 859789.92945465003 -19007.293557151486  4.9146525553765904e-10
 859921.36524231627 -11629.514168300924  4.7726519579952667e-10
 859977.18691645272 -6264.0229297397500  4.7357156212768842e-10
 859997.77254929056 -1957.3477613708840  4.7372599098868349e-10
 859997.60091274348  2031.3602155952112  4.7152447390517271e-10
 859976.34562834003  6378.4762855612171  4.7355137684670719e-10
 859918.57695699006  11833.892185792267  4.7780327489843179e-10
 859781.81164878455  19371.018505327876  4.7666618657575832e-10
 859463.97109368886  30359.222517491344  4.7803216738797725e-10
 858731.23873273691  46697.533388164993  4.8414437535994216e-10
 857109.27539649140  70453.460023630774  4.9980114209636020e-10
 854163.49857427482  100023.58573533771  5.0979486042444797e-10
 853445.03002384084  105979.15232537483  4.5516756094053758e-10
 855294.91428655724  89836.571592812514  4.4807891899649319e-10
 855689.27897796198  85999.173497047523  4.6927724562368290e-10
 854634.51555655699  95915.821528093860  5.0564250802181311e-10
 852279.38274233229  114977.62283309201  5.6860732896096361e-10
 0.0000000000000000  0.0000000000000000  0.0000000000000000
 0.0000000000000000  0.0000000000000000  0.0000000000000000
 0.0000000000000000  0.0000000000000000  0.0000000000000000
 0.0000000000000000  0.0000000000000000  0.0000000000000000
 0.0000000000000000  0.0000000000000000  0.0000000000000000
 0.0000000000000000  0.0000000000000000  0.0000000000000000
 0.0000000000000000  0.0000000000000000  0.0000000000000000
 0.0000000000000000  0.0000000000000000  0.0000000000000000
 0.0000000000000000  0.0000000000000000  0.0000000000000000
 0.0000000000000000  0.0000000000000000  0.0000000000000000
 0.0000000000000000  0.0000000000000000  0.0000000000000000
 0.0000000000000000  0.0000000000000000  0.0000000000000000
 0.0000000000000000  0.0000000000000000  0.0000000000000000
 0.0000000000000000  0.0000000000000000  0.0000000000000000
 0.0000000000000000  0.0000000000000000  0.0000000000000000
 0.0000000000000000  0.0000000000000000  0.0000000000000000
 0.0000000000000000  0.0000000000000000  0.0000000000000000
 0.0000000000000000  0.0000000000000000  0.0000000000000000
 0.0000000000000000  0.0000000000000000  0.0000000000000000
 0.0000000000000000  0.0000000000000000  0.0000000000000000
 0.0000000000000000  0.0000000000000000  0.0000000000000000
 0.0000000000000000  0.0000000000000000  0.0000000000000000
 0.0000000000000000  0.0000000000000000  0.0000000000000000
 0.0000000000000000  0.0000000000000000  0.0000000000000000
 0.0000000000000000  0.0000000000000000  0.0000000000000000
 0.0000000000000000  0.0000000000000000  0.0000000000000000
 0.0000000000000000  0.0000000000000000  0.0000000000000000
 0.0000000000000000  0.0000000000000000  0.0000000000000000
 0.0000000000000000  0.0000000000000000  0.0000000000000000
 0.0000000000000000  0.0000000000000000  0.0000000000000000
 0.0000000000000000  0.0000000000000000  0.0000000000000000
 0.0000000000000000  0.0000000000000000  0.0000000000000000
 0.0000000000000000  0.0000000000000000  0.0000000000000000
 0.0000000000000000  0.0000000000000000  0.0000000000000000
 0.0000000000000000  0.0000000000000000  0.0000000000000000
 0.0000000000000000  0.0000000000000000  0.0000000000000000
 0.0000000000000000  0.0000000000000000  0.0000000000000000
 0.0000000000000000  0.0000000000000000  0.0000000000000000
 0.0000000000000000  0.0000000000000000  0.0000000000000000
 0.0000000000000000  0.0000000000000000  0.0000000000000000
 0.0000000000000000  0.0000000000000000  0.0000000000000000
 0.0000000000000000  0.0000000000000000  0.0000000000000000
 0.0000000000000000  0.0000000000000000  0.0000000000000000
 0.0000000000000000  0.0000000000000000  0.0000000000000000
 0.0000000000000000  0.0000000000000000  0.0000000000000000
 0.0000000000000000  0.0000000000000000  0.0000000000000000
 0.0000000000000000  0.0000000000000000  0.0000000000000000
 0.0000000000000000  0.0000000000000000  0.0000000000000000
 0.0000000000000000  0.0000000000000000  0.0000000000000000
 0.0000000000000000  0.0000000000000000  0.0000000000000000
 0.0000000000000000  0.0000000000000000  0.0000000000000000
 0.0000000000000000  0.0000000000000000  0.0000000000000000
 0.0000000000000000  0.0000000000000000  0.0000000000000000
 0.0000000000000000  0.0000000000000000  0.0000000000000000
 0.0000000000000000  0.0000000000000000  0.0000000000000000
 0.0000000000000000  0.0000000000000000  0.0000000000000000
 0.0000000000000000  0.0000000000000000  0.0000000000000000
 0.0000000000000000  0.0000000000000000  0.0000000000000000
 0.0000000000000000  0.0000000000000000  0.0000000000000000
 0.0000000000000000  0.0000000000000000  0.0000000000000000
 0.0000000000000000  0.0000000000000000  0.0000000000000000
 0.0000000000000000  0.0000000000000000  0.0000000000000000
 0.0000000000000000  0.0000000000000000  0.0000000000000000
 0.0000000000000000  0.0000000000000000  0.0000000000000000
 0.0000000000000000  0.0000000000000000  0.0000000000000000
 0.0000000000000000  0.0000000000000000  0.0000000000000000
 0.0000000000000000  0.0000000000000000  0.0000000000000000
 0.0000000000000000  0.0000000000000000  0.0000000000000000
 0.0000000000000000  0.0000000000000000  0.0000000000000000
 0.0000000000000000  0.0000000000000000  0.0000000000000000
 0.0000000000000000  0.0000000000000000  0.0000000000000000
 0.0000000000000000  0.0000000000000000  0.0000000000000000
 0.0000000000000000  0.0000000000000000  0.0000000000000000
 0.0000000000000000  0.0000000000000000  0.0000000000000000
 0.0000000000000000  0.0000000000000000  0.0000000000000000
 0.0000000000000000  0.0000000000000000  0.0000000000000000
 0.0000000000000000  0.0000000000000000  0.0000000000000000
 0.0000000000000000  0.0000000000000000  0.0000000000000000
 0.0000000000000000  0.0000000000000000  0.0000000000000000
 0.0000000000000000  0.0000000000000000  0.0000000000000000
 0.0000000000000000  0.0000000000000000  0.0000000000000000
 0.0000000000000000  0.0000000000000000  0.0000000000000000
 0.0000000000000000  0.0000000000000000  0.0000000000000000
 0.0000000000000000  0.0000000000000000  0.0000000000000000
 0.0000000000000000  0.0000000000000000  0.0000000000000000
 0.0000000000000000  0.0000000000000000  0.0000000000000000
 0.0000000000000000  0.0000000000000000  0.0000000000000000
 0.0000000000000000  0.0000000000000000  0.0000000000000000
 0.0000000000000000  0.0000000000000000  0.0000000000000000
 0.0000000000000000  0.0000000000000000  0.0000000000000000
 843929.06267936865 -165480.32259190886  8.5375569394262537e-10
 846560.74096859572 -151442.76757475737  7.5425042140034798e-10
 846107.55862988310 -153954.53624164083  6.7517064802003438e-10
 848056.54839829635 -142828.88614971333  6.5844386184672950e-10
 852669.21836724610 -112050.00691204578  6.1372556751798876e-10
 855152.76473314397 -91179.761840333013  5.8499252492354105e-10
 855968.03571497963 -83178.854489822741  5.4433693524955036e-10
 855662.86960110022 -86261.541755351049  5.2908128392855144e-10
 854818.91582128045 -94258.268359493813  5.1510238811326296e-10
 855266.66785253445 -90105.087872008269  5.1640246739340597e-10
 857083.86315575312 -70761.935516278856  5.2795408856487901e-10
 858533.46372776944 -50202.506507130383  5.0549077687894678e-10
 859331.16912641888 -33910.791318130214  4.7911271660949589e-10
 859715.69135291490 -22111.762516349514  4.6701037075202114e-10
 859891.35899324098 -13669.335344395731  4.6134235395438883e-10
 859968.20475295314 -7395.0533455084442  4.5606517764940943e-10
 859996.91410115850 -2303.8525310881355  4.5236636615158182e-10
 859996.57328420097  2427.7436915095277  4.5350315356066533e-10
 859966.68550494290  7569.6645660436825  4.5412391264775326e-10
 859886.74860079691  13956.345537047879  4.5312732778024528e-10
 859703.07910430327  22596.809035345213  4.5378716258238426e-10
 859298.83906544978  34720.385665631751  4.4587054134446841e-10
 858455.03551213874  51526.226369224692  4.5345787696358631e-10
 856906.18142032297  72882.070796871791  4.5211232442785465e-10
 854907.32810213731  93452.984742405490  4.3896268448835955e-10
 854214.54586432665  99586.694060009584  4.2189595767795911e-10
 854759.64684718999  94794.230423938818  4.1772443983717612e-10
 854550.91449525568  96657.821904500466  4.2874598161114778e-10
 852773.87089532439  111250.73086593370  4.5939816752672289e-10
 849211.50521202409  135793.29665166824  4.7788558971287723e-10
 848781.99901644676  138452.58446718979  4.3036752878359420e-10
 850752.73489910678  125776.72305196179  4.5213714998326094e-10
 850080.58663263998  130242.06782106332  4.8847090764506011e-10
 846981.49031379190  149071.64407031867  5.3334598702930134e-10
 0.0000000000000000  0.0000000000000000  0.0000000000000000
 0.0000000000000000  0.0000000000000000  0.0000000000000000
 0.0000000000000000  0.0000000000000000  0.0000000000000000
 0.0000000000000000  0.0000000000000000  0.0000000000000000
 0.0000000000000000  0.0000000000000000  0.0000000000000000
 0.0000000000000000  0.0000000000000000  0.0000000000000000
 0.0000000000000000  0.0000000000000000  0.0000000000000000
 0.0000000000000000  0.0000000000000000  0.0000000000000000
 0.0000000000000000  0.0000000000000000  0.0000000000000000
 0.0000000000000000  0.0000000000000000  0.0000000000000000
 0.0000000000000000  0.0000000000000000  0.0000000000000000
 0.0000000000000000  0.0000000000000000  0.0000000000000000
 0.0000000000000000  0.0000000000000000  0.0000000000000000
 0.0000000000000000  0.0000000000000000  0.0000000000000000
 0.0000000000000000  0.0000000000000000  0.0000000000000000
 0.0000000000000000  0.0000000000000000  0.0000000000000000
 0.0000000000000000  0.0000000000000000  0.0000000000000000
 0.0000000000000000  0.0000000000000000  0.0000000000000000
 0.0000000000000000  0.0000000000000000  0.0000000000000000
 0.0000000000000000  0.0000000000000000  0.0000000000000000
 0.0000000000000000  0.0000000000000000  0.0000000000000000
 0.0000000000000000  0.0000000000000000  0.0000000000000000
 0.0000000000000000  0.0000000000000000  0.0000000000000000
 0.0000000000000000  0.0000000000000000  0.0000000000000000
 0.0000000000000000  0.0000000000000000  0.0000000000000000
 0.0000000000000000  0.0000000000000000  0.0000000000000000
 0.0000000000000000  0.0000000000000000  0.0000000000000000
 0.0000000000000000  0.0000000000000000  0.0000000000000000
 0.0000000000000000  0.0000000000000000  0.0000000000000000
 0.0000000000000000  0.0000000000000000  0.0000000000000000
 0.0000000000000000  0.0000000000000000  0.0000000000000000
 0.0000000000000000  0.0000000000000000  0.0000000000000000
 0.0000000000000000  0.0000000000000000  0.0000000000000000
 0.0000000000000000  0.0000000000000000  0.0000000000000000
 0.0000000000000000  0.0000000000000000  0.0000000000000000
 0.0000000000000000  0.0000000000000000  0.0000000000000000
 0.0000000000000000  0.0000000000000000  0.0000000000000000
 0.0000000000000000  0.0000000000000000  0.0000000000000000
 0.0000000000000000  0.0000000000000000  0.0000000000000000
 0.0000000000000000  0.0000000000000000  0.0000000000000000
 0.0000000000000000  0.0000000000000000  0.0000000000000000
 0.0000000000000000  0.0000000000000000  0.0000000000000000
 0.0000000000000000  0.0000000000000000  0.0000000000000000
 0.0000000000000000  0.0000000000000000  0.0000000000000000
 0.0000000000000000  0.0000000000000000  0.0000000000000000
 0.0000000000000000  0.0000000000000000  0.0000000000000000
 0.0000000000000000  0.0000000000000000  0.0000000000000000
 0.0000000000000000  0.0000000000000000  0.0000000000000000
 0.0000000000000000  0.0000000000000000  0.0000000000000000
 0.0000000000000000  0.0000000000000000  0.0000000000000000
 0.0000000000000000  0.0000000000000000  0.0000000000000000
 0.0000000000000000  0.0000000000000000  0.0000000000000000
 0.0000000000000000  0.0000000000000000  0.0000000000000000
 0.0000000000000000  0.0000000000000000  0.0000000000000000
 0.0000000000000000  0.0000000000000000  0.0000000000000000
 0.0000000000000000  0.0000000000000000  0.0000000000000000
 0.0000000000000000  0.0000000000000000  0.0000000000000000
 0.0000000000000000  0.0000000000000000  0.0000000000000000
 0.0000000000000000  0.0000000000000000  0.0000000000000000
 0.0000000000000000  0.0000000000000000  0.0000000000000000
 0.0000000000000000  0.0000000000000000  0.0000000000000000
 0.0000000000000000  0.0000000000000000  0.0000000000000000
 0.0000000000000000  0.0000000000000000  0.0000000000000000
 0.0000000000000000  0.0000000000000000  0.0000000000000000
 0.0000000000000000  0.0000000000000000  0.0000000000000000
 0.0000000000000000  0.0000000000000000  0.0000000000000000
 0.0000000000000000  0.0000000000000000  0.0000000000000000
 0.0000000000000000  0.0000000000000000  0.0000000000000000
 0.0000000000000000  0.0000000000000000  0.0000000000000000
 0.0000000000000000  0.0000000000000000  0.0000000000000000
 0.0000000000000000  0.0000000000000000  0.0000000000000000
 0.0000000000000000  0.0000000000000000  0.0000000000000000
 0.0000000000000000  0.0000000000000000  0.0000000000000000
 0.0000000000000000  0.0000000000000000  0.0000000000000000
 0.0000000000000000  0.0000000000000000  0.0000000000000000
 0.0000000000000000  0.0000000000000000  0.0000000000000000
 0.0000000000000000  0.0000000000000000  0.0000000000000000
 0.0000000000000000  0.0000000000000000  0.0000000000000000
 0.0000000000000000  0.0000000000000000  0.0000000000000000
 0.0000000000000000  0.0000000000000000  0.0000000000000000
 0.0000000000000000  0.0000000000000000  0.0000000000000000
 0.0000000000000000  0.0000000000000000  0.0000000000000000
 0.0000000000000000  0.0000000000000000  0.0000000000000000
 839257.39181850874 -187741.92466786481  1.2501502964755869e-09
 842096.93247892743 -174564.47608142067  1.0630009531740174e-09
 840503.55424501898 -182081.78190442509  9.0369705900127094e-10
 840119.09035840048 -183847.52926099906  8.1088989021527976e-10
 843924.78297090565 -165502.14707824701  7.3784366667245859e-10
 845766.42711851734 -155817.68435956593  6.7921970019382244e-10
 848096.16482749244 -142593.46129784011  6.2257788602480174e-10
 851565.98331889778 -120147.30980807942  5.7690659854694990e-10
 854036.03330878320 -101106.15119862242  5.5042436112579874e-10
 855190.11389609391 -90828.790008375436  5.2656055660968973e-10
 855442.59734408243 -88419.243658888648  5.0501748311425221e-10
 855426.84877766308 -88571.476166522203  4.9971814272246377e-10
 856015.67733017018 -82687.122122913555  5.0318858645151245e-10
 857270.11589683581 -68468.594189054391  4.8966053313526032e-10
 858450.48684480949 -51601.953799343064  4.8695658172139254e-10
 859224.87239075569 -36505.049857380705  4.7330428386044132e-10
 859649.47193453251 -24551.688387550246  4.6233024986533957e-10
 859860.87327422388 -15468.633168104667  4.5529986311336293e-10
 859958.46508767747 -8452.1195002086934  4.5467113840958703e-10
 859995.97384093085 -2631.5351772433223  4.5207666815500550e-10
 859995.38169568824  2818.4148181692326  4.4971627343246883e-10
 859955.98326523579  8700.9681255137293  4.5031925663787478e-10
 859853.85622934450  15853.893134668742  4.5007469803197326e-10
 859631.45430379233  25174.645410547171  4.4984170277450796e-10
 859181.51143024361  37511.737049113122  4.4808217236799694e-10
 858352.57042930298  53205.872207946886  4.3516886371355503e-10
 857065.74739851791  70981.016026961748  4.2807841049999928e-10
 855632.04062740633  86566.801094763214  4.2388851533042471e-10
 854791.14918864332  94509.741660626547  4.1120182408592753e-10
 854471.97547084570  97353.187595221898  4.0686205190887933e-10
 853739.09143601847  103583.60755448573  4.0084276746010452e-10
 852018.72012942494  116893.54365839179  4.0161739589551047e-10
 849717.66280552885  132589.19079739970  4.1121443342608599e-10
 848968.16070572007  137306.45326402693  3.9283693817303345e-10
 849073.14654487767  136655.74198101071  4.0839454880958135e-10
 847224.63443104143  147683.50894120871  4.5796479384555251e-10
 842833.86597463733  170970.97521581527  4.3544103190130456e-10
 842025.73716301459  174907.56974780024  4.4812030381977344e-10
 843017.40219018084  170063.69278749239  4.8086997459831262e-10
 840019.17248726042  184303.52642805825  5.4769693257545233e-10
 0.0000000000000000  0.0000000000000000  0.0000000000000000
 0.0000000000000000  0.0000000000000000  0.0000000000000000
 0.0000000000000000  0.0000000000000000  0.0000000000000000
 0.0000000000000000  0.0000000000000000  0.0000000000000000
 0.0000000000000000  0.0000000000000000  0.0000000000000000
 0.0000000000000000  0.0000000000000000  0.0000000000000000
 0.0000000000000000  0.0000000000000000  0.0000000000000000
 0.0000000000000000  0.0000000000000000  0.0000000000000000
 0.0000000000000000  0.0000000000000000  0.0000000000000000
 0.0000000000000000  0.0000000000000000  0.0000000000000000
 0.0000000000000000  0.0000000000000000  0.0000000000000000
 0.0000000000000000  0.0000000000000000  0.0000000000000000
 0.0000000000000000  0.0000000000000000  0.0000000000000000
 0.0000000000000000  0.0000000000000000  0.0000000000000000
 0.0000000000000000  0.0000000000000000  0.0000000000000000
 0.0000000000000000  0.0000000000000000  0.0000000000000000
 0.0000000000000000  0.0000000000000000  0.0000000000000000
 0.0000000000000000  0.0000000000000000  0.0000000000000000
 0.0000000000000000  0.0000000000000000  0.0000000000000000
 0.0000000000000000  0.0000000000000000  0.0000000000000000
 0.0000000000000000  0.0000000000000000  0.0000000000000000
 0.0000000000000000  0.0000000000000000  0.0000000000000000
 0.0000000000000000  0.0000000000000000  0.0000000000000000
 0.0000000000000000  0.0000000000000000  0.0000000000000000
 0.0000000000000000  0.0000000000000000  0.0000000000000000
 0.0000000000000000  0.0000000000000000  0.0000000000000000
 0.0000000000000000  0.0000000000000000  0.0000000000000000
 0.0000000000000000  0.0000000000000000  0.0000000000000000
 0.0000000000000000  0.0000000000000000  0.0000000000000000
 0.0000000000000000  0.0000000000000000  0.0000000000000000
 0.0000000000000000  0.0000000000000000  0.0000000000000000
 0.0000000000000000  0.0000000000000000  0.0000000000000000
 0.0000000000000000  0.0000000000000000  0.0000000000000000
 0.0000000000000000  0.0000000000000000  0.0000000000000000
 0.0000000000000000  0.0000000000000000  0.0000000000000000
 0.0000000000000000  0.0000000000000000  0.0000000000000000